 DBCSR| CPU Multiplication driver                                           XSMM
 DBCSR| Multrec recursion limit                                              512
 DBCSR| Multiplication stack size                                           1000
 DBCSR| Maximum elements for images                                    UNLIMITED
 DBCSR| Multiplicative factor virtual images                                   1
 DBCSR| Use multiplication densification                                       T
 DBCSR| Multiplication size stacks                                             3
 DBCSR| Use memory pool for CPU allocation                                     F
 DBCSR| Number of 3D layers                                               SINGLE
 DBCSR| Use MPI memory allocation                                              F
 DBCSR| Use RMA algorithm                                                      F
 DBCSR| Use Communication thread                                               T
 DBCSR| Communication thread load                                             87
 DBCSR| MPI: My node id                                                        0
 DBCSR| MPI: Number of nodes                                                  40
 DBCSR| OMP: Current number of threads                                         1
 DBCSR| OMP: Max number of threads                                             1
 DBCSR| Split modifier for TAS multiplication algorithm                  1.0E+00


  **** **** ******  **  PROGRAM STARTED AT               2021-06-07 11:37:22.568
 ***** ** ***  *** **   PROGRAM STARTED ON                             fpga-0001
 **    ****   ******    PROGRAM STARTED BY                                arjunr
 ***** **    ** ** **   PROGRAM PROCESS ID                                 76871
  **** **  *******  **  PROGRAM STARTED IN /scratch/pc2-mitarbeiter/arjunr/cp2k_
                                           application/h2o_custom

 CP2K| version string:                                          CP2K version 8.1
 CP2K| source code revision number:                                  git:0b61f2f
 CP2K| cp2kflags: omp libint fftw3 libxc elpa parallel mpi3 scalapack xsmm spgli
 CP2K|            b libvori libbqb
 CP2K| is freely available from                            https://www.cp2k.org/
 CP2K| Program compiled at                          Fr 7. Mai 12:31:54 CEST 2021
 CP2K| Program compiled on                                               ln-0001
 CP2K| Program compiled for                                                local
 CP2K| Data directory path    /cm/shared/apps/pc2/CHEM_PHYS_SW/CP2K/RELEASE/8.1_
 CP2K| Input file name                                               default.inp

 GLOBAL| Force Environment number                                              1
 GLOBAL| Basis set file name                                           BASIS_SET
 GLOBAL| Potential file name                                           POTENTIAL
 GLOBAL| MM Potential file name                                     MM_POTENTIAL
 GLOBAL| Coordinate file name                                      __STD_INPUT__
 GLOBAL| Method name                                                        CP2K
 GLOBAL| Project name                                                    H2O-FFT
 GLOBAL| Preferred FFT library                                             FFTW3
 GLOBAL| Preferred diagonalization lib.                                     ELPA
 GLOBAL| Run type                                                         ENERGY
 GLOBAL| All-to-all communication in single precision                          F
 GLOBAL| FFTs using library dependent lengths                                  F
 GLOBAL| Global print level                                                  LOW
 GLOBAL| MPI I/O enabled                                                       T
 GLOBAL| Total number of message passing processes                            40
 GLOBAL| Number of threads for this process                                    1
 GLOBAL| This output is from process                                           0
 GLOBAL| CPU model name                Intel(R) Xeon(R) Gold 6148F CPU @ 2.40GHz
 GLOBAL| CPUID                                                              1003

 MEMORY| system memory details [Kb]
 MEMORY|                        rank 0           min           max       average
 MEMORY| MemTotal            196712368     196712368     196712368     196712368
 MEMORY| MemFree             177451300     177451300     177451300     177451300
 MEMORY| Buffers                 30000         30000         30000         30000
 MEMORY| Cached                6941340       6941340       6941340       6941340
 MEMORY| Slab                   608592        608592        608592        608592
 MEMORY| SReclaimable           160580        160580        160580        160580
 MEMORY| MemLikelyFree       184583220     184583220     184583220     184583220


 GENERATE|  Preliminary Number of Bonds generated:                             0
 GENERATE|  Achieved consistency in connectivity generation.

 *******************************************************************************
 *******************************************************************************
 **                                                                           **
 **     #####                         ##              ##                      **
 **    ##   ##            ##          ##              ##                      **
 **   ##     ##                       ##            ######                    **
 **   ##     ##  ##   ##  ##   #####  ##  ##   ####   ##    #####    #####    **
 **   ##     ##  ##   ##  ##  ##      ## ##   ##      ##   ##   ##  ##   ##   **
 **   ##  ## ##  ##   ##  ##  ##      ####     ###    ##   ######   ######    **
 **    ##  ###   ##   ##  ##  ##      ## ##      ##   ##   ##       ##        **
 **     #######   #####   ##   #####  ##  ##  ####    ##    #####   ##        **
 **           ##                                                    ##        **
 **                                                                           **
 **                                                ... make the atoms dance   **
 **                                                                           **
 **            Copyright (C) by CP2K developers group (2000 - 2020)           **
 **                      J. Chem. Phys. 152, 194103 (2020)                    **
 **                                                                           **
 *******************************************************************************


 TOTAL NUMBERS AND MAXIMUM NUMBERS

  Total number of            - Atomic kinds:                                   2
                             - Atoms:                                          3
                             - Shell sets:                                     6
                             - Shells:                                        11
                             - Primitive Cartesian functions:                 15
                             - Cartesian basis functions:                     24
                             - Spherical basis functions:                     23

  Maximum angular momentum of- Orbital basis functions:                        2
                             - Local part of the GTH pseudopotential:          2
                             - Non-local part of the GTH pseudopotential:      0


 SCF PARAMETERS         Density guess:                                    ATOMIC
                        --------------------------------------------------------
                        max_scf:                                               1
                        max_scf_history:                                       0
                        max_diis:                                              4
                        --------------------------------------------------------
                        eps_scf:                                        1.00E-05
                        eps_scf_history:                                0.00E+00
                        eps_diis:                                       1.00E-01
                        eps_eigval:                                     1.00E-05
                        --------------------------------------------------------
                        level_shift [a.u.]:                                 0.00
                        --------------------------------------------------------
                        Mixing method:                           DIRECT_P_MIXING
                        --------------------------------------------------------
                        No outer SCF

 Number of electrons:                                                          8
 Number of occupied orbitals:                                                  4
 Number of molecular orbitals:                                                 4

 Number of orbital functions:                                                 23
 Number of independent orbital functions:                                     23

 Extrapolation method: initial_guess


 SCF WAVEFUNCTION OPTIMIZATION

  Step     Update method      Time    Convergence         Total energy    Change
  ------------------------------------------------------------------------------
     1 P_Mix/Diag. 0.40E+00    0.1     0.97953718       -17.0104100541 -1.70E+01

  Leaving inner SCF loop after reaching     1 steps.


  Electronic density on regular grids:         -7.9999999905        0.0000000095
  Core density on regular grids:                7.9999999998       -0.0000000002
  Total charge density on r-space grids:        0.0000000093
  Total charge density g-space grids:           0.0000000093

  Overlap energy of the core charge distribution:               0.00000008696883
  Self energy of the core charge distribution:                -43.83289054591484
  Core Hamiltonian energy:                                     12.34519806225445
  Hartree energy:                                              18.41866813308617
  Exchange-correlation energy:                                 -3.94138579046506

  Total energy:                                               -17.01041005407045

 *** WARNING in qs_scf.F:576 :: SCF run NOT converged ***


 ENERGY| Total FORCE_EVAL ( QS ) energy [a.u.]:              -17.010410054070448

 -------------------------------------------------------------------------------
 -                                                                             -
 -                                DBCSR STATISTICS                             -
 -                                                                             -
 -------------------------------------------------------------------------------
 COUNTER                                    TOTAL       BLAS       SMM       ACC
 flops    13 x     5 x     4                  520       0.0%    100.0%      0.0%
 flops     5 x    13 x     4                  520       0.0%    100.0%      0.0%
 flops     5 x     5 x     4                  600       0.0%    100.0%      0.0%
 flops    13 x    13 x     4                 1352       0.0%    100.0%      0.0%
 flops inhomo. stacks                           0       0.0%      0.0%      0.0%
 flops total                         2.992000E+03       0.0%    100.0%      0.0%
 flops max/rank                      2.592000E+03       0.0%    100.0%      0.0%
 matmuls inhomo. stacks                         0       0.0%      0.0%      0.0%
 matmuls total                                  6       0.0%    100.0%      0.0%
 number of processed stacks                     5       0.0%    100.0%      0.0%
 average stack size                                     0.0       1.2       0.0
 marketing flops                     4.232000E+03
 -------------------------------------------------------------------------------
 # multiplications                              1
 max memory usage/rank              92.360704E+06
 # max total images/rank                        5
 # max 3D layers                                1
 # MPI messages exchanged                    1320
 MPI messages size (bytes):
  total size                         8.832000E+03
  min size                           0.000000E+00
  max size                         736.000000E+00
  average size                       6.690909E+00
 MPI breakdown and total messages size (bytes):
             size <=      128                1305                        0
       128 < size <=     8192                  15                     8832
      8192 < size <=    32768                   0                        0
     32768 < size <=   131072                   0                        0
    131072 < size <=  4194304                   0                        0
   4194304 < size <= 16777216                   0                        0
  16777216 < size                               0                        0
 -------------------------------------------------------------------------------

 *** WARNING in dbcsr_mm.F:294 :: Using a non-square number of MPI ranks ***
 *** might lead to poor performance. Used ranks: 40 Suggested: 36 81     ***

 -------------------------------------------------------------------------------
 -                                                                             -
 -                      DBCSR MESSAGE PASSING PERFORMANCE                      -
 -                                                                             -
 -------------------------------------------------------------------------------
 ROUTINE             CALLS      AVE VOLUME [Bytes]
 MP_Bcast                5                     12.
 MP_Allreduce           35                     19.
 MP_Alltoall            33                   5217.
 MP_ISend               72                     81.
 MP_IRecv               70                     61.
 -------------------------------------------------------------------------------

 -------------------------------------------------------------------------------
 -                                                                             -
 -                                GRID STATISTICS                              -
 -                                                                             -
 -------------------------------------------------------------------------------
 LP    KERNEL             BACKEND                              COUNT     PERCENT
 1     collocate ortho    REF                                    392      25.23%
 0     collocate ortho    REF                                    364      23.42%
 2     collocate ortho    REF                                    224      14.41%
 1     integrate ortho    REF                                    196      12.61%
 0     integrate ortho    REF                                    182      11.71%
 2     integrate ortho    REF                                    112       7.21%
 3     collocate ortho    REF                                     52       3.35%
 3     integrate ortho    REF                                     26       1.67%
 0     collocate general  REF                                      3       0.19%
 4     collocate ortho    REF                                      2       0.13%
 4     integrate ortho    REF                                      1       0.06%
 -------------------------------------------------------------------------------

 MEMORY| Estimated peak process memory [MiB]                                  89

 -------------------------------------------------------------------------------
 -                                                                             -
 -                         MESSAGE PASSING PERFORMANCE                         -
 -                                                                             -
 -------------------------------------------------------------------------------

 ROUTINE             CALLS      AVE VOLUME [Bytes]
 MP_Group                1
 MP_Bcast               66                6545154.
 MP_Allreduce          374                    103.
 MP_Sync                 2
 MP_Alltoall             5                 219456.
 MP_ISendRecv          156                  46656.
 MP_Wait               156
 MP_comm_split           1
 MP_Recv                 3                    184.
 -------------------------------------------------------------------------------


 -------------------------------------------------------------------------------
 -                                                                             -
 -                           R E F E R E N C E S                               -
 -                                                                             -
 -------------------------------------------------------------------------------
 
 CP2K version 8.1, the CP2K developers group (2020).
 CP2K is freely available from https://www.cp2k.org/ .

 Kuehne,Thomas D.; Iannuzzi,Marcella; Del Ben,Mauro;
 Rybkin,Vladimir V.; Seewald,Patrick; Stein,Frederick; Laino,Teodoro;
 Khaliullin,Rustam Z.; Schuett,Ole; Schiffmann,Florian; Golze,Dorothea;
 Wilhelm,Jan; Chulkov,Sergey; Bani-Hashemian,Mohammad Hossein;
 Weber,Valery; Borstnik,Urban; Taillefumier,Mathieu;
 Jakobovits,Alice Shoshana; Lazzaro,Alfio; Pabst,Hans; Mueller,Tiziano;
 Schade,Robert; Guidon,Manuel; Andermatt,Samuel; Holmberg,Nico;
 Schenter,Gregory K.; Hehn,Anna; Bussy,Augustin; Belleflamme,Fabian;
 Tabacchi,Gloria; Gloess,Andreas; Lass,Michael; Bethune,Iain;
 Mundy,Christopher J.; Plessl,Christian; Watkins,Matt;
 VandeVondele,Joost; Krack,Matthias; Hutter,Juerg. 
 The Journal of Chemical Physics, 152 (19), (2020). 
 CP2K: An electronic structure and molecular dynamics software package -
 Quickstep: Efficient and accurate electronic structure calculations.
 https://doi.org/10.1063/5.0007045

 Schuett, Ole; Messmer, Peter; Hutter, Juerg; VandeVondele, Joost. 
 Electronic Structure Calculations on Graphics Processing Units, John
 Wiley & Sons, Ltd, 173-190 (2016). 
 GPU-Accelerated Sparse Matrix-Matrix Multiplication for
 Linear Scaling Density Functional Theory.
 https://doi.org/10.1002/9781118670712.ch8

 Borstnik, U; VandeVondele, J; Weber, V; Hutter, J. 
 PARALLEL COMPUTING, 40 (5-6), 47-58 (2014). 
 Sparse matrix multiplication: The distributed block-compressed sparse
 row library.
 https://doi.org/10.1016/j.parco.2014.03.012

 Hutter, J; Iannuzzi, M; Schiffmann, F; VandeVondele, J. 
 WIREs Comput Mol Sci., 4 (1), 15-25 (2014). 
 CP2K: atomistic simulations of condensed matter systems.
 https://doi.org/10.1002/wcms.1159

 Marek, A; Blum, V; Johanni, R; Havu, V; Lang, B; Auckenthaler, T;
 Heinecke, A; Bungartz, H; Lederer, H. 
 Journal of Physics: Condensed Matter, 26 (21), (2014). 
 The ELPA library: scalable parallel eigenvalue solutions for
 electronic structure
 theory and computational science.
 https://doi.org/10.1088/0953-8984/26/21/213201

 Krack, M. 
 THEORETICAL CHEMISTRY ACCOUNTS, 114 (1-3), 145-152 (2005). 
 Pseudopotentials for H to Kr optimized for gradient-corrected
 exchange-correlation functionals.
 https://doi.org/10.1007/s00214-005-0655-y

 VandeVondele, J; Krack, M; Mohamed, F; Parrinello, M; Chassaing, T;
 Hutter, J. COMPUTER PHYSICS COMMUNICATIONS, 167 (2), 103-128 (2005). 
 QUICKSTEP: Fast and accurate density functional calculations using a
 mixed Gaussian and plane waves approach.
 https://doi.org/10.1016/j.cpc.2004.12.014

 Frigo, M; Johnson, SG. 
 PROCEEDINGS OF THE IEEE, 93 (2), 216-231 (2005). 
 The design and implementation of FFTW3.
 https://doi.org/10.1109/JPROC.2004.840301

 Hartwigsen, C; Goedecker, S; Hutter, J. 
 PHYSICAL REVIEW B, 58 (7), 3641-3662 (1998). 
 Relativistic separable dual-space Gaussian pseudopotentials from H to Rn.
 https://doi.org/10.1103/PhysRevB.58.3641

 Lippert, G; Hutter, J; Parrinello, M. 
 MOLECULAR PHYSICS, 92 (3), 477-487 (1997). 
 A hybrid Gaussian and plane wave density functional scheme.
 https://doi.org/10.1080/002689797170220

 Goedecker, S; Teter, M; Hutter, J. 
 PHYSICAL REVIEW B, 54 (3), 1703-1710 (1996). 
 Separable dual-space Gaussian pseudopotentials.
 https://doi.org/10.1103/PhysRevB.54.1703


 -------------------------------------------------------------------------------
 -                                                                             -
 -                                T I M I N G                                  -
 -                                                                             -
 -------------------------------------------------------------------------------
 SUBROUTINE                       CALLS  ASD         SELF TIME        TOTAL TIME
                                MAXIMUM       AVERAGE  MAXIMUM  AVERAGE  MAXIMUM
 CP2K                                 1  1.0    0.080    0.083    0.486    0.487
 qs_energies                          1  2.0    0.003    0.003    0.256    0.256
 init_scf_run                         1  3.0    0.000    0.000    0.121    0.121
 scf_env_do_scf                       1  3.0    0.000    0.000    0.107    0.109
 scf_env_do_scf_inner_loop            1  4.0    0.000    0.001    0.107    0.109
 scf_env_initial_rho_setup            1  4.0    0.000    0.000    0.108    0.108
 rs_pw_transfer                       4  8.2    0.000    0.000    0.092    0.096
 rs_pw_transfer_RS2PW_150             3  8.3    0.001    0.001    0.090    0.094
 mp_waitall_1                       228 10.9    0.089    0.093    0.089    0.093
 qs_rho_update_rho                    2  5.0    0.000    0.000    0.092    0.092
 calculate_rho_elec                   2  6.0    0.000    0.000    0.092    0.092
 density_rs2pw                        2  7.0    0.000    0.000    0.087    0.090
 grid_collocate_task_list             2  7.0    0.005    0.088    0.005    0.088
 calculate_first_density_matrix       1  5.0    0.000    0.000    0.061    0.061
 calculate_atomic_block_dm            1  6.0    0.006    0.006    0.061    0.061
 create_qs_kind_set                   1  2.0    0.001    0.001    0.058    0.059
 read_qs_kind                         2  3.0    0.030    0.033    0.058    0.058
 qs_scf_new_mos                       1  5.0    0.000    0.000    0.052    0.054
 calculate_atom                       2  7.0    0.000    0.000    0.051    0.051
 calculate_atom_restricted            2  8.0    0.051    0.051    0.051    0.051
 qs_init_subsys                       1  2.0    0.016    0.016    0.046    0.046
 qs_ks_update_qs_env                  1  5.0    0.000    0.000    0.006    0.045
 rebuild_ks_matrix                    1  6.0    0.000    0.000    0.005    0.045
 qs_ks_build_kohn_sham_matrix         1  7.0    0.000    0.000    0.005    0.045
 copy_dbcsr_to_fm                     2  5.0    0.000    0.000    0.043    0.045
 sum_up_and_integrate                 1  8.0    0.000    0.000    0.003    0.043
 integrate_v_rspace                   1  9.0    0.000    0.000    0.003    0.043
 dbcsr_desymmetrize_deep              2  6.0    0.000    0.000    0.041    0.043
 mp_alltoall_i22                      5  7.6    0.040    0.042    0.040    0.042
 grid_integrate_task_list             1 10.0    0.001    0.041    0.001    0.041
 topology_control                     1  2.0    0.012    0.012    0.034    0.034
 parser_read_line                  6368  4.0    0.002    0.002    0.028    0.028
 parser_read_line_low                 9  5.0    0.004    0.013    0.026    0.026
 broadcast_input_information          9  6.0    0.000    0.000    0.022    0.023
 qs_env_setup                         1  3.0    0.007    0.007    0.023    0.023
 qs_energies_init_hamiltonians        1  3.0    0.003    0.003    0.022    0.022
 connectivity_control                 1  3.0    0.000    0.000    0.017    0.017
 qs_env_rebuild_pw_env                2  3.5    0.000    0.000    0.016    0.016
 pw_env_rebuild                       1  5.0    0.003    0.003    0.016    0.016
 mp_bcast_i                         121  3.5    0.014    0.015    0.014    0.015
 topology_generate_bond               1  4.0    0.000    0.000    0.013    0.013
 build_core_hamiltonian_matrix        1  4.0    0.006    0.006    0.008    0.012
 mp_bcast_am                          9  7.0    0.008    0.009    0.010    0.011
 build_overlap_matrix_low             1  5.0    0.001    0.010    0.002    0.011
 qs_env_update_s_mstruct              1  4.0    0.000    0.000    0.010    0.011
 calculate_rho_core                   1  5.0    0.000    0.000    0.010    0.010
 cp_fm_cholesky_decompose             1  4.0    0.010    0.010    0.010    0.010
 init_cube_info                       1  6.0    0.010    0.010    0.010    0.010
 -------------------------------------------------------------------------------

 The number of warnings for this run is : 2
 
 -------------------------------------------------------------------------------
  **** **** ******  **  PROGRAM ENDED AT                 2021-06-07 11:37:23.806
 ***** ** ***  *** **   PROGRAM RAN ON                                 fpga-0001
 **    ****   ******    PROGRAM RAN BY                                    arjunr
 ***** **    ** ** **   PROGRAM PROCESS ID                                 76871
  **** **  *******  **  PROGRAM STOPPED IN /scratch/pc2-mitarbeiter/arjunr/cp2k_
                                           application/h2o_custom
