 DBCSR| CPU Multiplication driver                                           XSMM
 DBCSR| Multrec recursion limit                                              512
 DBCSR| Multiplication stack size                                           1000
 DBCSR| Maximum elements for images                                    UNLIMITED
 DBCSR| Multiplicative factor virtual images                                   1
 DBCSR| Use multiplication densification                                       T
 DBCSR| Multiplication size stacks                                             3
 DBCSR| Number of 3D layers                                               SINGLE
 DBCSR| Use MPI memory allocation                                              T
 DBCSR| Use RMA algorithm                                                      F
 DBCSR| Use Communication thread                                               T
 DBCSR| Communication thread load                                             42


  **** **** ******  **  PROGRAM STARTED AT               2020-03-04 21:49:23.642
 ***** ** ***  *** **   PROGRAM STARTED ON                               cn-0252
 **    ****   ******    PROGRAM STARTED BY                                arjunr
 ***** **    ** ** **   PROGRAM PROCESS ID                                126257
  **** **  *******  **  PROGRAM STARTED IN /scratch/pc2-mitarbeiter/arjunr/cp2k_
                                           application/h2o_gw100

 CP2K| version string:                    CP2K version 7.0 (Development Version)
 CP2K| source code revision number:                                  git:c0d078b
 CP2K| cp2kflags: omp libint fftw3 libxc parallel mpi3 scalapack xsmm spglib    
 CP2K| is freely available from                            https://www.cp2k.org/
 CP2K| Program compiled at                          Tue Mar  3 15:25:24 CET 2020
 CP2K| Program compiled on                                               ln-0001
 CP2K| Program compiled for                                                local
 CP2K| Data directory path      /scratch/pc2-mitarbeiter/arjunr/cp2k_latest/data
 CP2K| Input file name                                  h2o_gw100_100_64_est.inp

 GLOBAL| Force Environment number                                              1
 GLOBAL| Basis set file name                              BASIS_def2_QZVP_RI_ALL
 GLOBAL| Potential file name                                           POTENTIAL
 GLOBAL| MM Potential file name                                     MM_POTENTIAL
 GLOBAL| Coordinate file name                                      __STD_INPUT__
 GLOBAL| Method name                                                        CP2K
 GLOBAL| Project name                                                   ALL_ELEC
 GLOBAL| Preferred FFT library                                             FFTW3
 GLOBAL| Preferred diagonalization lib.                                       SL
 GLOBAL| Run type                                                         ENERGY
 GLOBAL| All-to-all communication in single precision                          F
 GLOBAL| FFTs using library dependent lengths                                  F
 GLOBAL| Global print level                                               MEDIUM
 GLOBAL| MPI I/O enabled                                                       T
 GLOBAL| Total number of message passing processes                             1
 GLOBAL| Number of threads for this process                                   13
 GLOBAL| This output is from process                                           0
 GLOBAL| CPU model name                 Intel(R) Xeon(R) Gold 6148 CPU @ 2.40GHz
 GLOBAL| CPUID                                                              1003

 MEMORY| system memory details [Kb]
 MEMORY|                        rank 0           min           max       average
 MEMORY| MemTotal            196699340     196699340     196699340     196699340
 MEMORY| MemFree             172781352     172781352     172781352     172781352
 MEMORY| Buffers                     0             0             0             0
 MEMORY| Cached               14170292      14170292      14170292      14170292
 MEMORY| Slab                  6458720       6458720       6458720       6458720
 MEMORY| SReclaimable          1528256       1528256       1528256       1528256
 MEMORY| MemLikelyFree       188479900     188479900     188479900     188479900


 *** Fundamental physical constants (SI units) ***

 *** Literature: B. J. Mohr and B. N. Taylor,
 ***             CODATA recommended values of the fundamental physical
 ***             constants: 2006, Web Version 5.1
 ***             http://physics.nist.gov/constants

 Speed of light in vacuum [m/s]                             2.99792458000000E+08
 Magnetic constant or permeability of vacuum [N/A**2]       1.25663706143592E-06
 Electric constant or permittivity of vacuum [F/m]          8.85418781762039E-12
 Planck constant (h) [J*s]                                  6.62606896000000E-34
 Planck constant (h-bar) [J*s]                              1.05457162825177E-34
 Elementary charge [C]                                      1.60217648700000E-19
 Electron mass [kg]                                         9.10938215000000E-31
 Electron g factor [ ]                                     -2.00231930436220E+00
 Proton mass [kg]                                           1.67262163700000E-27
 Fine-structure constant                                    7.29735253760000E-03
 Rydberg constant [1/m]                                     1.09737315685270E+07
 Avogadro constant [1/mol]                                  6.02214179000000E+23
 Boltzmann constant [J/K]                                   1.38065040000000E-23
 Atomic mass unit [kg]                                      1.66053878200000E-27
 Bohr radius [m]                                            5.29177208590000E-11

 *** Conversion factors ***

 [u] -> [a.u.]                                              1.82288848426455E+03
 [Angstrom] -> [Bohr] = [a.u.]                              1.88972613288564E+00
 [a.u.] = [Bohr] -> [Angstrom]                              5.29177208590000E-01
 [a.u.] -> [s]                                              2.41888432650478E-17
 [a.u.] -> [fs]                                             2.41888432650478E-02
 [a.u.] -> [J]                                              4.35974393937059E-18
 [a.u.] -> [N]                                              8.23872205491840E-08
 [a.u.] -> [K]                                              3.15774647902944E+05
 [a.u.] -> [kJ/mol]                                         2.62549961709828E+03
 [a.u.] -> [kcal/mol]                                       6.27509468713739E+02
 [a.u.] -> [Pa]                                             2.94210107994716E+13
 [a.u.] -> [bar]                                            2.94210107994716E+08
 [a.u.] -> [atm]                                            2.90362800883016E+08
 [a.u.] -> [eV]                                             2.72113838565563E+01
 [a.u.] -> [Hz]                                             6.57968392072181E+15
 [a.u.] -> [1/cm] (wave numbers)                            2.19474631370540E+05
 [a.u./Bohr**2] -> [1/cm]                                   5.14048714338585E+03
 

 CELL_TOP| Volume [angstrom^3]:                                         1000.000
 CELL_TOP| Vector a [angstrom    10.000     0.000     0.000    |a| =      10.000
 CELL_TOP| Vector b [angstrom     0.000    10.000     0.000    |b| =      10.000
 CELL_TOP| Vector c [angstrom     0.000     0.000    10.000    |c| =      10.000
 CELL_TOP| Angle (b,c), alpha [degree]:                                   90.000
 CELL_TOP| Angle (a,c), beta  [degree]:                                   90.000
 CELL_TOP| Angle (a,b), gamma [degree]:                                   90.000
 CELL_TOP| Numerically orthorhombic:                                         YES

 GENERATE|  Preliminary Number of Bonds generated:                             0
 GENERATE|  Achieved consistency in connectivity generation.

 CELL| Volume [angstrom^3]:                                             1000.000
 CELL| Vector a [angstrom]:      10.000     0.000     0.000    |a| =      10.000
 CELL| Vector b [angstrom]:       0.000    10.000     0.000    |b| =      10.000
 CELL| Vector c [angstrom]:       0.000     0.000    10.000    |c| =      10.000
 CELL| Angle (b,c), alpha [degree]:                                       90.000
 CELL| Angle (a,c), beta  [degree]:                                       90.000
 CELL| Angle (a,b), gamma [degree]:                                       90.000
 CELL| Numerically orthorhombic:                                             YES

 CELL_REF| Volume [angstrom^3]:                                         1000.000
 CELL_REF| Vector a [angstrom    10.000     0.000     0.000    |a| =      10.000
 CELL_REF| Vector b [angstrom     0.000    10.000     0.000    |b| =      10.000
 CELL_REF| Vector c [angstrom     0.000     0.000    10.000    |c| =      10.000
 CELL_REF| Angle (b,c), alpha [degree]:                                   90.000
 CELL_REF| Angle (a,c), beta  [degree]:                                   90.000
 CELL_REF| Angle (a,b), gamma [degree]:                                   90.000
 CELL_REF| Numerically orthorhombic:                                         YES

 *******************************************************************************
 *******************************************************************************
 **                                                                           **
 **     #####                         ##              ##                      **
 **    ##   ##            ##          ##              ##                      **
 **   ##     ##                       ##            ######                    **
 **   ##     ##  ##   ##  ##   #####  ##  ##   ####   ##    #####    #####    **
 **   ##     ##  ##   ##  ##  ##      ## ##   ##      ##   ##   ##  ##   ##   **
 **   ##  ## ##  ##   ##  ##  ##      ####     ###    ##   ######   ######    **
 **    ##  ###   ##   ##  ##  ##      ## ##      ##   ##   ##       ##        **
 **     #######   #####   ##   #####  ##  ##  ####    ##    #####   ##        **
 **           ##                                                    ##        **
 **                                                                           **
 **                                                ... make the atoms dance   **
 **                                                                           **
 **            Copyright (C) by CP2K developers group (2000 - 2019)           **
 **                                                                           **
 *******************************************************************************

 DFT| Spin restricted Kohn-Sham (RKS) calculation                            RKS
 DFT| Multiplicity                                                             1
 DFT| Number of spin states                                                    1
 DFT| Charge                                                                   0
 DFT| Self-interaction correction (SIC)                                       NO
 DFT| Cutoffs: density                                              1.000000E-10
 DFT|          gradient                                             1.000000E-10
 DFT|          tau                                                  1.000000E-10
 DFT|          cutoff_smoothing_range                               0.000000E+00
 DFT| XC density smoothing                                                  NONE
 DFT| XC derivatives                                                          PW
 FUNCTIONAL| ROUTINE=NEW
 FUNCTIONAL| PBE:
 FUNCTIONAL| J.P.Perdew, K.Burke, M.Ernzerhof, Phys. Rev. Letter, vol. 77, n 18,
 FUNCTIONAL|  pp. 3865-3868, (1996){spin unpolarized}                           

 QS| Method:                                                                GAPW
 QS| Density plane wave grid type                        NON-SPHERICAL FULLSPACE
 QS| Number of grid levels:                                                    1
 QS| Density cutoff [a.u.]:                                                 50.0
 QS| Grid level progression factor:                                          3.0
 QS| Relative density cutoff [a.u.]:                                        25.0
 QS| Consistent realspace mapping and integration 
 QS| Interaction thresholds: eps_pgf_orb:                                1.0E-05
 QS|                         eps_filter_matrix:                          0.0E+00
 QS|                         eps_core_charge:                            1.0E-12
 QS|                         eps_rho_gspace:                             1.0E-10
 QS|                         eps_rho_rspace:                             1.0E-10
 QS|                         eps_gvg_rspace:                             1.0E-05
 QS|                         eps_ppl:                                    1.0E-02
 QS|                         eps_ppnl:                                   1.0E-07
 QS| GAPW|                   eps_fit:                                    1.0E-04
 QS| GAPW|                   eps_iso:                                    1.0E-12
 QS| GAPW|                   eps_svd:                                    1.0E-08
 QS| GAPW|                   eps_cpc:                                    1.0E-10
 QS| GAPW|   atom-r-grid: quadrature:                 GC_LOG                        
 QS| GAPW|      atom-s-grid:  max l :                                          8
 QS| GAPW|      max_l_rho0 :                                                   2


 ATOMIC KIND INFORMATION

  1. Atomic kind: O                                     Number of atoms:       1

     Orbital Basis Set                                                 def2-QZVP

       Number of orbital shell sets:                                          17
       Number of orbital shells:                                              17
       Number of primitive Cartesian functions:                               29
       Number of Cartesian basis functions:                                   72
       Number of spherical basis functions:                                   57
       Norm type:                                                              2

       Normalised Cartesian orbitals:

                        Set   Shell   Orbital            Exponent    Coefficient

                          1       1    1s           116506.469080       0.323542
                                                     17504.349724       0.604284
                                                      3993.451323       1.042947
                                                      1133.006319       1.694135
                                                       369.995696       2.585616
                                                       133.620743       3.631450
                                                        52.035644       4.414414
                                                        21.461939       4.188022

                          2       1    1s               89.835051       1.972527
                                                        26.428011       7.687249

                          3       1    1s                9.282282       3.790104

                          4       1    1s                4.094773       2.051552

                          5       1    1s                1.325535       0.880448

                          6       1    1s                0.518772       0.435655

                          7       1    1s                0.197727       0.211329

                          8       1    1px             191.152558       2.569255
                                                        45.233357       3.383308
                                                        14.353466       3.764009
                                                         5.242237       3.495516
                                                         2.079242       2.436773
                          8       1    1py             191.152558       2.569255
                                                        45.233357       3.383308
                                                        14.353466       3.764009
                                                         5.242237       3.495516
                                                         2.079242       2.436773
                          8       1    1pz             191.152558       2.569255
                                                        45.233357       3.383308
                                                        14.353466       3.764009
                                                         5.242237       3.495516
                                                         2.079242       2.436773

                          9       1    1px               0.842824       1.151095
                          9       1    1py               0.842824       1.151095
                          9       1    1pz               0.842824       1.151095

                         10       1    1px               0.336177       0.364880
                         10       1    1py               0.336177       0.364880
                         10       1    1pz               0.336177       0.364880

                         11       1    1px               0.128640       0.109815
                         11       1    1py               0.128640       0.109815
                         11       1    1pz               0.128640       0.109815

                         12       1    1dx2              3.775000      16.827288
                         12       1    1dxy              3.775000      29.145718
                         12       1    1dxz              3.775000      29.145718
                         12       1    1dy2              3.775000      16.827288
                         12       1    1dyz              3.775000      29.145718
                         12       1    1dz2              3.775000      16.827288

                         13       1    1dx2              1.300000       2.605016
                         13       1    1dxy              1.300000       4.512019
                         13       1    1dxz              1.300000       4.512019
                         13       1    1dy2              1.300000       2.605016
                         13       1    1dyz              1.300000       4.512019
                         13       1    1dz2              1.300000       2.605016

                         14       1    1dx2              0.444000       0.397493
                         14       1    1dxy              0.444000       0.688478
                         14       1    1dxz              0.444000       0.688478
                         14       1    1dy2              0.444000       0.397493
                         14       1    1dyz              0.444000       0.688478
                         14       1    1dz2              0.444000       0.397493

                         15       1    1fx3              2.666000      13.370258
                         15       1    1fx2y             2.666000      29.896805
                         15       1    1fx2z             2.666000      29.896805
                         15       1    1fxy2             2.666000      29.896805
                         15       1    1fxyz             2.666000      51.782785
                         15       1    1fxz2             2.666000      29.896805
                         15       1    1fy3              2.666000      13.370258
                         15       1    1fy2z             2.666000      29.896805
                         15       1    1fyz2             2.666000      29.896805
                         15       1    1fz3              2.666000      13.370258

                         16       1    1fx3              0.859000       1.045777
                         16       1    1fx2y             0.859000       2.338428
                         16       1    1fx2z             0.859000       2.338428
                         16       1    1fxy2             0.859000       2.338428
                         16       1    1fxyz             0.859000       4.050277
                         16       1    1fxz2             0.859000       2.338428
                         16       1    1fy3              0.859000       1.045777
                         16       1    1fy2z             0.859000       2.338428
                         16       1    1fyz2             0.859000       2.338428
                         16       1    1fz3              0.859000       1.045777

                         17       1    1gx4              1.846000       6.005824
                         17       1    1gx3y             1.846000      15.889916
                         17       1    1gx3z             1.846000      15.889916
                         17       1    1gx2y2            1.846000      20.513794
                         17       1    1gx2yz            1.846000      35.530933
                         17       1    1gx2z2            1.846000      20.513794
                         17       1    1gxy3             1.846000      15.889916
                         17       1    1gxy2z            1.846000      35.530933
                         17       1    1gxyz2            1.846000      35.530933
                         17       1    1gxz3             1.846000      15.889916
                         17       1    1gy4              1.846000       6.005824
                         17       1    1gy3z             1.846000      15.889916
                         17       1    1gy2z2            1.846000      20.513794
                         17       1    1gyz3             1.846000      15.889916
                         17       1    1gz4              1.846000       6.005824

     RI Auxiliary Basis Set                                                RI-5Z

       Number of orbital shell sets:                                          38
       Number of orbital shells:                                              38
       Number of primitive Cartesian functions:                               38
       Number of Cartesian basis functions:                                  259
       Number of spherical basis functions:                                  180
       Norm type:                                                              2

       Normalised Cartesian orbitals:

                        Set   Shell   Orbital            Exponent    Coefficient

                          1       1    1s              488.561000      74.062640

                          2       1    1s              105.279000      23.424288

                          3       1    1s               28.708200       8.839233

                          4       1    1s               14.825500       5.384769

                          5       1    1s                5.831540       2.674530

                          6       1    1s                3.595370       1.860878

                          7       1    1s                1.940030       1.171565

                          8       1    1s                1.058590       0.743800

                          9       1    1s                0.474911       0.407727

                         10       1    1s                0.251005       0.252739

                         11       1    1px              94.256600     418.629472
                         11       1    1py              94.256600     418.629472
                         11       1    1pz              94.256600     418.629472

                         12       1    1px              25.465100      81.540209
                         12       1    1py              25.465100      81.540209
                         12       1    1pz              25.465100      81.540209

                         13       1    1px              11.049300      28.714982
                         13       1    1py              11.049300      28.714982
                         13       1    1pz              11.049300      28.714982

                         14       1    1px               4.708760       9.887199
                         14       1    1py               4.708760       9.887199
                         14       1    1pz               4.708760       9.887199

                         15       1    1px               2.756880       5.063635
                         15       1    1py               2.756880       5.063635
                         15       1    1pz               2.756880       5.063635

                         16       1    1px               1.274280       1.929839
                         16       1    1py               1.274280       1.929839
                         16       1    1pz               1.274280       1.929839

                         17       1    1px               0.696641       0.907197
                         17       1    1py               0.696641       0.907197
                         17       1    1pz               0.696641       0.907197

                         18       1    1px               0.416519       0.476962
                         18       1    1py               0.416519       0.476962
                         18       1    1pz               0.416519       0.476962

                         19       1    1dx2             21.988200     367.486504
                         19       1    1dxy             21.988200     636.505295
                         19       1    1dxz             21.988200     636.505295
                         19       1    1dy2             21.988200     367.486504
                         19       1    1dyz             21.988200     636.505295
                         19       1    1dz2             21.988200     367.486504

                         20       1    1dx2              7.274420      53.034271
                         20       1    1dxy              7.274420      91.858053
                         20       1    1dxz              7.274420      91.858053
                         20       1    1dy2              7.274420      53.034271
                         20       1    1dyz              7.274420      91.858053
                         20       1    1dz2              7.274420      53.034271

                         21       1    1dx2              4.518780      23.051360
                         21       1    1dxy              4.518780      39.926127
                         21       1    1dxz              4.518780      39.926127
                         21       1    1dy2              4.518780      23.051360
                         21       1    1dyz              4.518780      39.926127
                         21       1    1dz2              4.518780      23.051360

                         22       1    1dx2              2.719410       9.478512
                         22       1    1dxy              2.719410      16.417264
                         22       1    1dxz              2.719410      16.417264
                         22       1    1dy2              2.719410       9.478512
                         22       1    1dyz              2.719410      16.417264
                         22       1    1dz2              2.719410       9.478512

                         23       1    1dx2              1.442130       3.123685
                         23       1    1dxy              1.442130       5.410380
                         23       1    1dxz              1.442130       5.410380
                         23       1    1dy2              1.442130       3.123685
                         23       1    1dyz              1.442130       5.410380
                         23       1    1dz2              1.442130       3.123685

                         24       1    1dx2              0.719024       0.924082
                         24       1    1dxy              0.719024       1.600557
                         24       1    1dxz              0.719024       1.600557
                         24       1    1dy2              0.719024       0.924082
                         24       1    1dyz              0.719024       1.600557
                         24       1    1dz2              0.719024       0.924082

                         25       1    1dx2              0.303063       0.203747
                         25       1    1dxy              0.303063       0.352901
                         25       1    1dxz              0.303063       0.352901
                         25       1    1dy2              0.303063       0.203747
                         25       1    1dyz              0.303063       0.352901
                         25       1    1dz2              0.303063       0.203747

                         26       1    1fx3             14.098700     567.031722
                         26       1    1fx2y            14.098700    1267.921477
                         26       1    1fx2z            14.098700    1267.921477
                         26       1    1fxy2            14.098700    1267.921477
                         26       1    1fxyz            14.098700    2196.104418
                         26       1    1fxz2            14.098700    1267.921477
                         26       1    1fy3             14.098700     567.031722
                         26       1    1fy2z            14.098700    1267.921477
                         26       1    1fyz2            14.098700    1267.921477
                         26       1    1fz3             14.098700     567.031722

                         27       1    1fx3              6.442910      97.361912
                         27       1    1fx2y             6.442910     217.707854
                         27       1    1fx2z             6.442910     217.707854
                         27       1    1fxy2             6.442910     217.707854
                         27       1    1fxyz             6.442910     377.081065
                         27       1    1fxz2             6.442910     217.707854
                         27       1    1fy3              6.442910      97.361912
                         27       1    1fy2z             6.442910     217.707854
                         27       1    1fyz2             6.442910     217.707854
                         27       1    1fz3              6.442910      97.361912

                         28       1    1fx3              3.721040      28.310609
                         28       1    1fx2y             3.721040      63.304446
                         28       1    1fx2z             3.721040      63.304446
                         28       1    1fxy2             3.721040      63.304446
                         28       1    1fxyz             3.721040     109.646517
                         28       1    1fxz2             3.721040      63.304446
                         28       1    1fy3              3.721040      28.310609
                         28       1    1fy2z             3.721040      63.304446
                         28       1    1fyz2             3.721040      63.304446
                         28       1    1fz3              3.721040      28.310609

                         29       1    1fx3              2.093740       7.763019
                         29       1    1fx2y             2.093740      17.358638
                         29       1    1fx2z             2.093740      17.358638
                         29       1    1fxy2             2.093740      17.358638
                         29       1    1fxyz             2.093740      30.066042
                         29       1    1fxz2             2.093740      17.358638
                         29       1    1fy3              2.093740       7.763019
                         29       1    1fy2z             2.093740      17.358638
                         29       1    1fyz2             2.093740      17.358638
                         29       1    1fz3              2.093740       7.763019

                         30       1    1fx3              1.185310       2.158124
                         30       1    1fx2y             1.185310       4.825711
                         30       1    1fx2z             1.185310       4.825711
                         30       1    1fxy2             1.185310       4.825711
                         30       1    1fxyz             1.185310       8.358377
                         30       1    1fxz2             1.185310       4.825711
                         30       1    1fy3              1.185310       2.158124
                         30       1    1fy2z             1.185310       4.825711
                         30       1    1fyz2             1.185310       4.825711
                         30       1    1fz3              1.185310       2.158124

                         31       1    1fx3              0.621013       0.504001
                         31       1    1fx2y             0.621013       1.126979
                         31       1    1fx2z             0.621013       1.126979
                         31       1    1fxy2             0.621013       1.126979
                         31       1    1fxyz             0.621013       1.951986
                         31       1    1fxz2             0.621013       1.126979
                         31       1    1fy3              0.621013       0.504001
                         31       1    1fy2z             0.621013       1.126979
                         31       1    1fyz2             0.621013       1.126979
                         31       1    1fz3              0.621013       0.504001

                         32       1    1gx4              7.014070     235.968042
                         32       1    1gx3y             7.014070     624.312756
                         32       1    1gx3z             7.014070     624.312756
                         32       1    1gx2y2            7.014070     805.984303
                         32       1    1gx2yz            7.014070    1396.005762
                         32       1    1gx2z2            7.014070     805.984303
                         32       1    1gxy3             7.014070     624.312756
                         32       1    1gxy2z            7.014070    1396.005762
                         32       1    1gxyz2            7.014070    1396.005762
                         32       1    1gxz3             7.014070     624.312756
                         32       1    1gy4              7.014070     235.968042
                         32       1    1gy3z             7.014070     624.312756
                         32       1    1gy2z2            7.014070     805.984303
                         32       1    1gyz3             7.014070     624.312756
                         32       1    1gz4              7.014070     235.968042

                         33       1    1gx4              3.883140      46.418255
                         33       1    1gx3y             3.883140     122.811159
                         33       1    1gx3z             3.883140     122.811159
                         33       1    1gx2y2            3.883140     158.548524
                         33       1    1gx2yz            3.883140     274.614099
                         33       1    1gx2z2            3.883140     158.548524
                         33       1    1gxy3             3.883140     122.811159
                         33       1    1gxy2z            3.883140     274.614099
                         33       1    1gxyz2            3.883140     274.614099
                         33       1    1gxz3             3.883140     122.811159
                         33       1    1gy4              3.883140      46.418255
                         33       1    1gy3z             3.883140     122.811159
                         33       1    1gy2z2            3.883140     158.548524
                         33       1    1gyz3             3.883140     122.811159
                         33       1    1gz4              3.883140      46.418255

                         34       1    1gx4              2.038250       7.886665
                         34       1    1gx3y             2.038250      20.866155
                         34       1    1gx3z             2.038250      20.866155
                         34       1    1gx2y2            2.038250      26.938091
                         34       1    1gx2yz            2.038250      46.658142
                         34       1    1gx2z2            2.038250      26.938091
                         34       1    1gxy3             2.038250      20.866155
                         34       1    1gxy2z            2.038250      46.658142
                         34       1    1gxyz2            2.038250      46.658142
                         34       1    1gxz3             2.038250      20.866155
                         34       1    1gy4              2.038250       7.886665
                         34       1    1gy3z             2.038250      20.866155
                         34       1    1gy2z2            2.038250      26.938091
                         34       1    1gyz3             2.038250      20.866155
                         34       1    1gz4              2.038250       7.886665

                         35       1    1gx4              1.007810       1.136912
                         35       1    1gx3y             1.007810       3.007986
                         35       1    1gx3z             1.007810       3.007986
                         35       1    1gx2y2            1.007810       3.883293
                         35       1    1gx2yz            1.007810       6.726061
                         35       1    1gx2z2            1.007810       3.883293
                         35       1    1gxy3             1.007810       3.007986
                         35       1    1gxy2z            1.007810       6.726061
                         35       1    1gxyz2            1.007810       6.726061
                         35       1    1gxz3             1.007810       3.007986
                         35       1    1gy4              1.007810       1.136912
                         35       1    1gy3z             1.007810       3.007986
                         35       1    1gy2z2            1.007810       3.883293
                         35       1    1gyz3             1.007810       3.007986
                         35       1    1gz4              1.007810       1.136912

                         36       1    1hx5              5.427550     181.053374
                         36       1    1hx4y             5.427550     543.160123
                         36       1    1hx4z             5.427550     543.160123
                         36       1    1hx3y2            5.427550     829.690793
                         36       1    1hx3yz            5.427550    1437.066608
                         36       1    1hx3z2            5.427550     829.690793
                         36       1    1hx2y3            5.427550     829.690793
                         36       1    1hx2y2z           5.427550    1855.245014
                         36       1    1hx2yz2           5.427550    1855.245014
                         36       1    1hx2z3            5.427550     829.690793
                         36       1    1hxy4             5.427550     543.160123
                         36       1    1hxy3z            5.427550    1437.066608
                         36       1    1hxy2z2           5.427550    1855.245014
                         36       1    1hxyz3            5.427550    1437.066608
                         36       1    1hxz4             5.427550     543.160123
                         36       1    1hy5              5.427550     181.053374
                         36       1    1hy4z             5.427550     543.160123
                         36       1    1hy3z2            5.427550     829.690793
                         36       1    1hy2z3            5.427550     829.690793
                         36       1    1hyz4             5.427550     543.160123
                         36       1    1hz5              5.427550     181.053374

                         37       1    1hx5              3.223120      33.284552
                         37       1    1hx4y             3.223120      99.853655
                         37       1    1hx4z             3.223120      99.853655
                         37       1    1hx3y2            3.223120     152.528977
                         37       1    1hx3yz            3.223120     264.187938
                         37       1    1hx3z2            3.223120     152.528977
                         37       1    1hx2y3            3.223120     152.528977
                         37       1    1hx2y2z           3.223120     341.065161
                         37       1    1hx2yz2           3.223120     341.065161
                         37       1    1hx2z3            3.223120     152.528977
                         37       1    1hxy4             3.223120      99.853655
                         37       1    1hxy3z            3.223120     264.187938
                         37       1    1hxy2z2           3.223120     341.065161
                         37       1    1hxyz3            3.223120     264.187938
                         37       1    1hxz4             3.223120      99.853655
                         37       1    1hy5              3.223120      33.284552
                         37       1    1hy4z             3.223120      99.853655
                         37       1    1hy3z2            3.223120     152.528977
                         37       1    1hy2z3            3.223120     152.528977
                         37       1    1hyz4             3.223120      99.853655
                         37       1    1hz5              3.223120      33.284552

                         38       1    1hx5              1.724010       4.356106
                         38       1    1hx4y             1.724010      13.068318
                         38       1    1hx4z             1.724010      13.068318
                         38       1    1hx3y2            1.724010      19.962186
                         38       1    1hx3yz            1.724010      34.575521
                         38       1    1hx3z2            1.724010      19.962186
                         38       1    1hx2y3            1.724010      19.962186
                         38       1    1hx2y2z           1.724010      44.636805
                         38       1    1hx2yz2           1.724010      44.636805
                         38       1    1hx2z3            1.724010      19.962186
                         38       1    1hxy4             1.724010      13.068318
                         38       1    1hxy3z            1.724010      34.575521
                         38       1    1hxy2z2           1.724010      44.636805
                         38       1    1hxyz3            1.724010      34.575521
                         38       1    1hxz4             1.724010      13.068318
                         38       1    1hy5              1.724010       4.356106
                         38       1    1hy4z             1.724010      13.068318
                         38       1    1hy3z2            1.724010      19.962186
                         38       1    1hy2z3            1.724010      19.962186
                         38       1    1hyz4             1.724010      13.068318
                         38       1    1hz5              1.724010       4.356106

     The atoms of this atomic kind are PAW atoms (GAPW):
       Hard Gaussian function radius:                                      1.512
       Rho0 radius:                                                        1.512
       Maximum GTO radius used for PAW projector construction:            24.566

     GAPW Soft Basis Set                                          def2-QZVP_soft

       Number of orbital shell sets:                                          17
       Number of orbital shells:                                              17
       Number of primitive Cartesian functions:                               13
       Number of Cartesian basis functions:                                   72
       Number of spherical basis functions:                                   57
       Norm type:                                                              2

       Normalised Cartesian orbitals:

                        Set   Shell   Orbital            Exponent    Coefficient

                          1       1    1s         

                          2       1    1s         

                          3       1    1s         

                          4       1    1s         

                          5       1    1s                1.325535       0.880448

                          6       1    1s                0.518772       0.435655

                          7       1    1s                0.197727       0.211329

                          8       1    1px               2.079242       2.436773
                          8       1    1py               2.079242       2.436773
                          8       1    1pz               2.079242       2.436773

                          9       1    1px               0.842824       1.151095
                          9       1    1py               0.842824       1.151095
                          9       1    1pz               0.842824       1.151095

                         10       1    1px               0.336177       0.364880
                         10       1    1py               0.336177       0.364880
                         10       1    1pz               0.336177       0.364880

                         11       1    1px               0.128640       0.109815
                         11       1    1py               0.128640       0.109815
                         11       1    1pz               0.128640       0.109815

                         12       1    1dx2              3.775000      16.827288
                         12       1    1dxy              3.775000      29.145718
                         12       1    1dxz              3.775000      29.145718
                         12       1    1dy2              3.775000      16.827288
                         12       1    1dyz              3.775000      29.145718
                         12       1    1dz2              3.775000      16.827288

                         13       1    1dx2              1.300000       2.605016
                         13       1    1dxy              1.300000       4.512019
                         13       1    1dxz              1.300000       4.512019
                         13       1    1dy2              1.300000       2.605016
                         13       1    1dyz              1.300000       4.512019
                         13       1    1dz2              1.300000       2.605016

                         14       1    1dx2              0.444000       0.397493
                         14       1    1dxy              0.444000       0.688478
                         14       1    1dxz              0.444000       0.688478
                         14       1    1dy2              0.444000       0.397493
                         14       1    1dyz              0.444000       0.688478
                         14       1    1dz2              0.444000       0.397493

                         15       1    1fx3              2.666000      13.370258
                         15       1    1fx2y             2.666000      29.896805
                         15       1    1fx2z             2.666000      29.896805
                         15       1    1fxy2             2.666000      29.896805
                         15       1    1fxyz             2.666000      51.782785
                         15       1    1fxz2             2.666000      29.896805
                         15       1    1fy3              2.666000      13.370258
                         15       1    1fy2z             2.666000      29.896805
                         15       1    1fyz2             2.666000      29.896805
                         15       1    1fz3              2.666000      13.370258

                         16       1    1fx3              0.859000       1.045777
                         16       1    1fx2y             0.859000       2.338428
                         16       1    1fx2z             0.859000       2.338428
                         16       1    1fxy2             0.859000       2.338428
                         16       1    1fxyz             0.859000       4.050277
                         16       1    1fxz2             0.859000       2.338428
                         16       1    1fy3              0.859000       1.045777
                         16       1    1fy2z             0.859000       2.338428
                         16       1    1fyz2             0.859000       2.338428
                         16       1    1fz3              0.859000       1.045777

                         17       1    1gx4              1.846000       6.005824
                         17       1    1gx3y             1.846000      15.889916
                         17       1    1gx3z             1.846000      15.889916
                         17       1    1gx2y2            1.846000      20.513794
                         17       1    1gx2yz            1.846000      35.530933
                         17       1    1gx2z2            1.846000      20.513794
                         17       1    1gxy3             1.846000      15.889916
                         17       1    1gxy2z            1.846000      35.530933
                         17       1    1gxyz2            1.846000      35.530933
                         17       1    1gxz3             1.846000      15.889916
                         17       1    1gy4              1.846000       6.005824
                         17       1    1gy3z             1.846000      15.889916
                         17       1    1gy2z2            1.846000      20.513794
                         17       1    1gyz3             1.846000      15.889916
                         17       1    1gz4              1.846000       6.005824

     AE Potential information for                                            ALL

       Description:                                       All-electron potential
                                          Krack, Parrinello, PCCP 2, 2105 (2000)

       Gaussian exponent of the core charge distribution:               8.154466
       Electronic configuration (s p d ...):                           4   4   0

  2. Atomic kind: H                                     Number of atoms:       2

     Orbital Basis Set                                                 def2-QZVP

       Number of orbital shell sets:                                          10
       Number of orbital shells:                                              10
       Number of primitive Cartesian functions:                               13
       Number of Cartesian basis functions:                                   35
       Number of spherical basis functions:                                   30
       Norm type:                                                              2

       Normalised Cartesian orbitals:

                        Set   Shell   Orbital            Exponent    Coefficient

                          1       1    1s              190.691690       0.195396
                                                        28.605532       0.363661
                                                         6.509594       0.612837
                                                         1.841246       0.914889

                          2       1    1s                0.598537       0.484985

                          3       1    1s                0.213976       0.224225

                          4       1    1s                0.080316       0.107526

                          5       1    1px               2.292000       4.019836
                          5       1    1py               2.292000       4.019836
                          5       1    1pz               2.292000       4.019836

                          6       1    1px               0.838000       1.142865
                          6       1    1py               0.838000       1.142865
                          6       1    1pz               0.838000       1.142865

                          7       1    1px               0.292000       0.305963
                          7       1    1py               0.292000       0.305963
                          7       1    1pz               0.292000       0.305963

                          8       1    1dx2              2.062000       5.840024
                          8       1    1dxy              2.062000      10.115218
                          8       1    1dxz              2.062000      10.115218
                          8       1    1dy2              2.062000       5.840024
                          8       1    1dyz              2.062000      10.115218
                          8       1    1dz2              2.062000       5.840024

                          9       1    1dx2              0.662000       0.799670
                          9       1    1dxy              0.662000       1.385069
                          9       1    1dxz              0.662000       1.385069
                          9       1    1dy2              0.662000       0.799670
                          9       1    1dyz              0.662000       1.385069
                          9       1    1dz2              0.662000       0.799670

                         10       1    1fx3              1.397000       3.123535
                         10       1    1fx2y             1.397000       6.984436
                         10       1    1fx2z             1.397000       6.984436
                         10       1    1fxy2             1.397000       6.984436
                         10       1    1fxyz             1.397000      12.097399
                         10       1    1fxz2             1.397000       6.984436
                         10       1    1fy3              1.397000       3.123535
                         10       1    1fy2z             1.397000       6.984436
                         10       1    1fyz2             1.397000       6.984436
                         10       1    1fz3              1.397000       3.123535

     RI Auxiliary Basis Set                                                RI-5Z

       Number of orbital shell sets:                                          21
       Number of orbital shells:                                              21
       Number of primitive Cartesian functions:                               21
       Number of Cartesian basis functions:                                  126
       Number of spherical basis functions:                                   91
       Norm type:                                                              2

       Normalised Cartesian orbitals:

                        Set   Shell   Orbital            Exponent    Coefficient

                          1       1    1s               23.321500       7.563581

                          2       1    1s                4.922970       2.355486

                          3       1    1s                1.775100       1.096042

                          4       1    1s                0.994218       0.709613

                          5       1    1s                0.506054       0.427620

                          6       1    1s                0.236911       0.242019

                          7       1    1px               5.974580      13.314483
                          7       1    1py               5.974580      13.314483
                          7       1    1pz               5.974580      13.314483

                          8       1    1px               2.052170       3.501118
                          8       1    1py               2.052170       3.501118
                          8       1    1pz               2.052170       3.501118

                          9       1    1px               1.248660       1.881462
                          9       1    1py               1.248660       1.881462
                          9       1    1pz               1.248660       1.881462

                         10       1    1px               0.805545       1.087808
                         10       1    1py               0.805545       1.087808
                         10       1    1pz               0.805545       1.087808

                         11       1    1px               0.347892       0.380843
                         11       1    1py               0.347892       0.380843
                         11       1    1pz               0.347892       0.380843

                         12       1    1dx2              3.858160      17.481346
                         12       1    1dxy              3.858160      30.278579
                         12       1    1dxz              3.858160      30.278579
                         12       1    1dy2              3.858160      17.481346
                         12       1    1dyz              3.858160      30.278579
                         12       1    1dz2              3.858160      17.481346

                         13       1    1dx2              1.710630       4.211459
                         13       1    1dxy              1.710630       7.294461
                         13       1    1dxz              1.710630       7.294461
                         13       1    1dy2              1.710630       4.211459
                         13       1    1dyz              1.710630       7.294461
                         13       1    1dz2              1.710630       4.211459

                         14       1    1dx2              0.979237       1.586584
                         14       1    1dxy              0.979237       2.748044
                         14       1    1dxz              0.979237       2.748044
                         14       1    1dy2              0.979237       1.586584
                         14       1    1dyz              0.979237       2.748044
                         14       1    1dz2              0.979237       1.586584

                         15       1    1dx2              0.625366       0.723843
                         15       1    1dxy              0.625366       1.253733
                         15       1    1dxz              0.625366       1.253733
                         15       1    1dy2              0.625366       0.723843
                         15       1    1dyz              0.625366       1.253733
                         15       1    1dz2              0.625366       0.723843

                         16       1    1fx3              3.101510      18.792914
                         16       1    1fx2y             3.101510      42.022232
                         16       1    1fx2z             3.101510      42.022232
                         16       1    1fxy2             3.101510      42.022232
                         16       1    1fxyz             3.101510      72.784641
                         16       1    1fxz2             3.101510      42.022232
                         16       1    1fy3              3.101510      18.792914
                         16       1    1fy2z             3.101510      42.022232
                         16       1    1fyz2             3.101510      42.022232
                         16       1    1fz3              3.101510      18.792914

                         17       1    1fx3              1.198110       2.210915
                         17       1    1fx2y             1.198110       4.943756
                         17       1    1fx2z             1.198110       4.943756
                         17       1    1fxy2             1.198110       4.943756
                         17       1    1fxyz             1.198110       8.562836
                         17       1    1fxz2             1.198110       4.943756
                         17       1    1fy3              1.198110       2.210915
                         17       1    1fy2z             1.198110       4.943756
                         17       1    1fyz2             1.198110       4.943756
                         17       1    1fz3              1.198110       2.210915

                         18       1    1fx3              0.572873       0.420326
                         18       1    1fx2y             0.572873       0.939876
                         18       1    1fx2z             0.572873       0.939876
                         18       1    1fxy2             0.572873       0.939876
                         18       1    1fxyz             0.572873       1.627914
                         18       1    1fxz2             0.572873       0.939876
                         18       1    1fy3              0.572873       0.420326
                         18       1    1fy2z             0.572873       0.939876
                         18       1    1fyz2             0.572873       0.939876
                         18       1    1fz3              0.572873       0.420326

                         19       1    1gx4              2.987800      22.576266
                         19       1    1gx3y             2.987800      59.731185
                         19       1    1gx3z             2.987800      59.731185
                         19       1    1gx2y2            2.987800      77.112629
                         19       1    1gx2yz            2.987800     133.562991
                         19       1    1gx2z2            2.987800      77.112629
                         19       1    1gxy3             2.987800      59.731185
                         19       1    1gxy2z            2.987800     133.562991
                         19       1    1gxyz2            2.987800     133.562991
                         19       1    1gxz3             2.987800      59.731185
                         19       1    1gy4              2.987800      22.576266
                         19       1    1gy3z             2.987800      59.731185
                         19       1    1gy2z2            2.987800      77.112629
                         19       1    1gyz3             2.987800      59.731185
                         19       1    1gz4              2.987800      22.576266

                         20       1    1gx4              1.231920       1.974865
                         20       1    1gx3y             1.231920       5.225001
                         20       1    1gx3z             1.231920       5.225001
                         20       1    1gx2y2            1.231920       6.745447
                         20       1    1gx2yz            1.231920      11.683456
                         20       1    1gx2z2            1.231920       6.745447
                         20       1    1gxy3             1.231920       5.225001
                         20       1    1gxy2z            1.231920      11.683456
                         20       1    1gxyz2            1.231920      11.683456
                         20       1    1gxz3             1.231920       5.225001
                         20       1    1gy4              1.231920       1.974865
                         20       1    1gy3z             1.231920       5.225001
                         20       1    1gy2z2            1.231920       6.745447
                         20       1    1gyz3             1.231920       5.225001
                         20       1    1gz4              1.231920       1.974865

                         21       1    1hx5              3.247390      34.106027
                         21       1    1hx4y             3.247390     102.318080
                         21       1    1hx4z             3.247390     102.318080
                         21       1    1hx3y2            3.247390     156.293448
                         21       1    1hx3yz            3.247390     270.708193
                         21       1    1hx3z2            3.247390     156.293448
                         21       1    1hx2y3            3.247390     156.293448
                         21       1    1hx2y2z           3.247390     349.482775
                         21       1    1hx2yz2           3.247390     349.482775
                         21       1    1hx2z3            3.247390     156.293448
                         21       1    1hxy4             3.247390     102.318080
                         21       1    1hxy3z            3.247390     270.708193
                         21       1    1hxy2z2           3.247390     349.482775
                         21       1    1hxyz3            3.247390     270.708193
                         21       1    1hxz4             3.247390     102.318080
                         21       1    1hy5              3.247390      34.106027
                         21       1    1hy4z             3.247390     102.318080
                         21       1    1hy3z2            3.247390     156.293448
                         21       1    1hy2z3            3.247390     156.293448
                         21       1    1hyz4             3.247390     102.318080
                         21       1    1hz5              3.247390      34.106027

     The atoms of this atomic kind are PAW atoms (GAPW):
       Hard Gaussian function radius:                                      1.200
       Rho0 radius:                                                        1.200
       Maximum GTO radius used for PAW projector construction:            24.566

     GAPW Soft Basis Set                                          def2-QZVP_soft

       Number of orbital shell sets:                                          10
       Number of orbital shells:                                              10
       Number of primitive Cartesian functions:                               10
       Number of Cartesian basis functions:                                   35
       Number of spherical basis functions:                                   30
       Norm type:                                                              2

       Normalised Cartesian orbitals:

                        Set   Shell   Orbital            Exponent    Coefficient

                          1       1    1s                1.841246       0.914889

                          2       1    1s                0.598537       0.484985

                          3       1    1s                0.213976       0.224225

                          4       1    1s                0.080316       0.107526

                          5       1    1px               2.292000       4.019836
                          5       1    1py               2.292000       4.019836
                          5       1    1pz               2.292000       4.019836

                          6       1    1px               0.838000       1.142865
                          6       1    1py               0.838000       1.142865
                          6       1    1pz               0.838000       1.142865

                          7       1    1px               0.292000       0.305963
                          7       1    1py               0.292000       0.305963
                          7       1    1pz               0.292000       0.305963

                          8       1    1dx2              2.062000       5.840024
                          8       1    1dxy              2.062000      10.115218
                          8       1    1dxz              2.062000      10.115218
                          8       1    1dy2              2.062000       5.840024
                          8       1    1dyz              2.062000      10.115218
                          8       1    1dz2              2.062000       5.840024

                          9       1    1dx2              0.662000       0.799670
                          9       1    1dxy              0.662000       1.385069
                          9       1    1dxz              0.662000       1.385069
                          9       1    1dy2              0.662000       0.799670
                          9       1    1dyz              0.662000       1.385069
                          9       1    1dz2              0.662000       0.799670

                         10       1    1fx3              1.397000       3.123535
                         10       1    1fx2y             1.397000       6.984436
                         10       1    1fx2z             1.397000       6.984436
                         10       1    1fxy2             1.397000       6.984436
                         10       1    1fxyz             1.397000      12.097399
                         10       1    1fxz2             1.397000       6.984436
                         10       1    1fy3              1.397000       3.123535
                         10       1    1fy2z             1.397000       6.984436
                         10       1    1fyz2             1.397000       6.984436
                         10       1    1fz3              1.397000       3.123535

     AE Potential information for                                            ALL

       Description:                                       All-electron potential
                                          Krack, Parrinello, PCCP 2, 2105 (2000)

       Gaussian exponent of the core charge distribution:              12.500000
       Electronic configuration (s p d ...):                           1   0   0


 MOLECULE KIND INFORMATION


 All atoms are their own molecule, skipping detailed information


 TOTAL NUMBERS AND MAXIMUM NUMBERS

  Total number of            - Atomic kinds:                                   2
                             - Atoms:                                          3
                             - Shell sets:                                    37
                             - Shells:                                        37
                             - Primitive Cartesian functions:                 55
                             - Cartesian basis functions:                    142
                             - Spherical basis functions:                    117

  Maximum angular momentum of the orbital basis functions:                     4


 MODULE QUICKSTEP:  ATOMIC COORDINATES IN angstrom

  Atom  Kind  Element       X           Y           Z          Z(eff)       Mass

       1     1 O    8    5.000000    5.000000    4.706950      8.00      15.9994
       2     2 H    1    5.757100    5.000000    5.293050      1.00       1.0079
       3     2 H    1    4.242900    5.000000    5.293050      1.00       1.0079




 SCF PARAMETERS         Density guess:                                    ATOMIC
                        --------------------------------------------------------
                        max_scf:                                             200
                        max_scf_history:                                       0
                        max_diis:                                              4
                        --------------------------------------------------------
                        eps_scf:                                        1.00E-06
                        eps_scf_history:                                0.00E+00
                        eps_diis:                                       1.00E-01
                        eps_eigval:                                     1.00E-05
                        --------------------------------------------------------
                        level_shift [a.u.]:                                 0.00
                        --------------------------------------------------------
                        Mixing method:                           DIRECT_P_MIXING
                        --------------------------------------------------------
                        No outer SCF

 PW_GRID| Information for grid number                                          1
 PW_GRID| Cutoff [a.u.]                                                    100.0
 PW_GRID| spherical cutoff:                                                   NO
 PW_GRID|   Bounds   1            -45      44                Points:          90
 PW_GRID|   Bounds   2            -45      44                Points:          90
 PW_GRID|   Bounds   3            -45      44                Points:          90
 PW_GRID| Volume element (a.u.^3)  0.9257E-02     Volume (a.u.^3)      6748.3346
 PW_GRID| Grid span                                                    FULLSPACE

 PW_GRID| Information for grid number                                          2
 PW_GRID| Cutoff [a.u.]                                                     50.0
 PW_GRID| spherical cutoff:                                                   NO
 PW_GRID|   Bounds   1            -32      31                Points:          64
 PW_GRID|   Bounds   2            -32      31                Points:          64
 PW_GRID|   Bounds   3            -32      31                Points:          64
 PW_GRID| Volume element (a.u.^3)  0.2574E-01     Volume (a.u.^3)      6748.3346
 PW_GRID| Grid span                                                    FULLSPACE

 POISSON| Solver                                          Martyna-Tuckerman (MT)
 POISSON| MT| Alpha                                                        7.000
 POISSON| MT| Relative cutoff                                                2.0
 POISSON| Periodicity                                                       NONE

 RS_GRID| Information for grid number                                          2
 RS_GRID|   Bounds   1            -32      31                Points:          64
 RS_GRID|   Bounds   2            -32      31                Points:          64
 RS_GRID|   Bounds   3            -32      31                Points:          64
 
 RI-RPA| using GPW style
 

 Number of electrons:                                                         10
 Number of occupied orbitals:                                                  5
 Number of molecular orbitals:                                                 5

 Number of orbital functions:                                                117
 Number of independent orbital functions:                                    117

 Extrapolation method: initial_guess

 Atomic guess: The first density matrix is obtained in terms of atomic orbitals
               and electronic configurations assigned to each atomic kind

 Guess for atomic kind: O

 Electronic structure
    Total number of core electrons                                          0.00
    Total number of valence electrons                                       8.00
    Total number of electrons                                               8.00
    Multiplicity                                                   not specified
    S      2.00  2.00
    P      4.00


 *******************************************************************************
                  Iteration          Convergence                     Energy [au]
 *******************************************************************************
                          1        0.803868                     -74.375247611716
                          2        0.832042                     -74.359208742253
                          3        0.659233E-01                 -74.469354453780
                          4        0.159056E-02                 -74.470062409074
                          5        0.164953E-03                 -74.470062790135
                          6        0.475493E-05                 -74.470062794226
                          7        0.867855E-07                 -74.470062794229

 Energy components [Hartree]           Total Energy ::          -74.470062794229
                                        Band Energy ::          -40.605308987678
                                     Kinetic Energy ::           74.097894114627
                                   Potential Energy ::         -148.567956908856
                                      Virial (-V/T) ::            2.005022662034
                                        Core Energy ::         -103.038853455181
                                          XC Energy ::           -7.766840194986
                                     Coulomb Energy ::           36.335630855938

 Orbital energies  State     L     Occupation   Energy[a.u.]          Energy[eV]

                       1     0          2.000     -18.759154         -510.462543
                       2     0          2.000      -0.869809          -23.668701

                       1     1          4.000      -0.336846           -9.166040


 Total Electron Density at R=0:                                       304.745754

 Guess for atomic kind: H

 Electronic structure
    Total number of core electrons                                          0.00
    Total number of valence electrons                                       1.00
    Total number of electrons                                               1.00
    Multiplicity                                                   not specified
    S      1.00


 *******************************************************************************
                  Iteration          Convergence                     Energy [au]
 *******************************************************************************
                          1        0.760354E-02                  -0.445327665654
                          2        0.114575E-02                  -0.445419349379
                          3        0.106073E-03                  -0.445421833009
                          4        0.362246E-06                  -0.445421852875

 Energy components [Hartree]           Total Energy ::           -0.445421852875
                                        Band Energy ::           -0.232522434546
                                     Kinetic Energy ::            0.425808986370
                                   Potential Energy ::           -0.871230839245
                                      Virial (-V/T) ::            2.046060245633
                                        Core Energy ::           -0.496086848305
                                          XC Energy ::           -0.232842933138
                                     Coulomb Energy ::            0.283507928568

 Orbital energies  State     L     Occupation   Energy[a.u.]          Energy[eV]

                       1     0          1.000      -0.232522           -6.327257


 Total Electron Density at R=0:                                         0.261242
 Re-scaling the density matrix to get the right number of electrons
                  # Electrons              Trace(P)               Scaling factor
                           10                10.000                        1.000


 SCF WAVEFUNCTION OPTIMIZATION

  Step     Update method      Time    Convergence         Total energy    Change
  ------------------------------------------------------------------------------
     1 P_Mix/Diag. 0.40E+00    0.2     0.23757057       -76.2485031630 -7.62E+01
     2 P_Mix/Diag. 0.40E+00    0.2     0.18054293       -76.2605060660 -1.20E-02
     3 P_Mix/Diag. 0.40E+00    0.2     0.09364420       -76.2685300642 -8.02E-03
     4 DIIS/Diag.  0.10E-01    0.2     0.05976209       -76.2727624529 -4.23E-03
     5 DIIS/Diag.  0.12E-01    0.2     0.01318327       -76.2783527557 -5.59E-03
     6 DIIS/Diag.  0.47E-01    0.2     0.01414539       -76.2773735557  9.79E-04
     7 DIIS/Diag.  0.11E-01    0.2     0.00389580       -76.2783652885 -9.92E-04
[...]
 mp_alltoall_d11v                  4539 10.4    0.004    0.004    0.004    0.004
 dbcsr_distribution_new            4499  9.2    0.003    0.003    0.003    0.003
 write_mo_set_to_restart             11  5.0    0.003    0.003    0.003    0.003
 cp_fm_trace_a0b0t0                  33  7.0    0.003    0.003    0.003    0.003
 make_images_sizes                 2930 11.0    0.002    0.002    0.003    0.003
 dbcsr_tas_reshape_buffer_fill        4 13.0    0.003    0.003    0.003    0.003
 get_maxl_CG                          2  4.0    0.003    0.003    0.003    0.003
 mp_irecv_iv                       5860 12.0    0.003    0.003    0.003    0.003
 write_available_results              1  4.0    0.000    0.000    0.003    0.003
 write_mo_free_results                1  5.0    0.002    0.002    0.003    0.003
 dbcsr_iterator_seek              11267 11.8    0.003    0.003    0.003    0.003
 get_fft_scratch                    128 13.8    0.002    0.002    0.002    0.002
 pw_scale                            13  7.5    0.002    0.002    0.002    0.002
 copy_fm_to_dbcsr                    12  7.8    0.000    0.000    0.002    0.002
 dbcsr_tas_reshape_get_coord          4 13.0    0.002    0.002    0.002    0.002
 calculate_atom                       2  7.0    0.000    0.000    0.002    0.002
 calculate_atom_restricted            2  8.0    0.002    0.002    0.002    0.002
 dbcsr_t_destroy                     26  8.5    0.000    0.000    0.002    0.002
 cp_fm_create                        26  6.5    0.002    0.002    0.002    0.002
 fill_hash_tables                  1465 12.0    0.002    0.002    0.002    0.002
 block_buffer_get_next_area_blo    8464 13.0    0.002    0.002    0.002    0.002
 allocate_rho_atom_internals          1  4.0    0.002    0.002    0.002    0.002
 rs_grid_zero                        37  8.5    0.002    0.002    0.002    0.002
 cholesky_decomp                      1  7.0    0.000    0.000    0.002    0.002
 init_interaction_radii               3  4.7    0.002    0.002    0.002    0.002
 transpose_index_local              736 10.0    0.001    0.001    0.002    0.002
 mp_alltoall_i44                   2930 12.0    0.002    0.002    0.002    0.002
 qs_env_update_s_mstruct              1  4.0    0.000    0.000    0.002    0.002
 dbcsr_t_get_2d_block_r_dp            2  9.0    0.002    0.002    0.002    0.002
 scf_c_write_parameters               1  3.0    0.002    0.002    0.002    0.002
 dbcsr_t_distribution_new            18  9.2    0.000    0.000    0.001    0.001
 allocate_matrices_gw                 1  7.0    0.000    0.000    0.001    0.001
 read_qs_section                      1  3.0    0.001    0.001    0.001    0.001
 qs_create_task_list                  1  5.0    0.000    0.000    0.001    0.001
 generate_qs_task_list                1  6.0    0.001    0.001    0.001    0.001
 dbcsr_tas_iterator_next_area_b    8234 11.0    0.001    0.001    0.001    0.001
 external_control                    12  4.8    0.001    0.001    0.001    0.001
 dbcsr_make_images_dense             24  9.8    0.000    0.000    0.001    0.001
 write_qs_control                     1  3.0    0.001    0.001    0.001    0.001
 invert_L                             1  7.0    0.000    0.000    0.001    0.001
 dbcsr_data_copy_aa2                761 11.9    0.001    0.001    0.001    0.001
 cp_fm_triangular_invert              2  6.0    0.001    0.001    0.001    0.001
 write_qs_kind_set                    1  3.0    0.001    0.001    0.001    0.001
 mp_sum_l                          4454  9.0    0.001    0.001    0.001    0.001
 cp_fm_symm                          20  7.0    0.001    0.001    0.001    0.001
 dbcsr_tas_distribution_new          26 10.8    0.001    0.001    0.001    0.001
 build_overlap_matrix                 1  5.0    0.001    0.001    0.001    0.001
 dbcsr_mm_sched_init               1465 12.0    0.001    0.001    0.001    0.001
 initialize_buffer_bS                 1  8.0    0.001    0.001    0.001    0.001
 RPA_postprocessing_start           100  8.0    0.001    0.001    0.001    0.001
 dbcsr_make_dbcsr_index            6735 12.1    0.001    0.001    0.001    0.001
 dbcsr_tas_iterator_next_block_    7176 11.0    0.001    0.001    0.001    0.001
 dbcsr_make_dense_low                25 10.6    0.000    0.000    0.001    0.001
 mp_comm_dup                         50 11.3    0.001    0.001    0.001    0.001
 dbcsr_tas_create_new                34 10.7    0.000    0.000    0.001    0.001
 dbcsr_t_create_new                  20  9.1    0.000    0.000    0.001    0.001
 buffer_matrices_ensure_size       2930 10.0    0.001    0.001    0.001    0.001
 mp_allgather_i34                  1465 10.0    0.001    0.001    0.001    0.001
 mp_alltoall_i11v                  3037  9.9    0.001    0.001    0.001    0.001
 write_mo_set_low                     1  6.0    0.000    0.000    0.001    0.001
 cp_fm_write_unformatted              1  7.0    0.001    0.001    0.001    0.001
 mp_bcast_av                        611  1.0    0.001    0.001    0.001    0.001
 multrec_filtering                 1452 12.0    0.001    0.001    0.001    0.001
 mp_alltoall_i22                   1513  9.9    0.001    0.001    0.001    0.001
 dbcsr_tas_create_split              28 11.5    0.000    0.000    0.001    0.001
 calculate_atom_vxc_lda              11  9.0    0.001    0.001    0.001    0.001
 make_dense_data                     25 11.6    0.000    0.000    0.001    0.001
 rpa_ri_compute_en_reorder            1  6.0    0.000    0.000    0.001    0.001
 dbcsr_tas_blk_sizes               4232 13.0    0.001    0.001    0.001    0.001
 dbcsr_get_data_size_used          2994 10.5    0.001    0.001    0.001    0.001
 dbcsr_tas_create_split_rows_or      28 12.5    0.000    0.000    0.001    0.001
 build_kinetic_matrix                 1  5.0    0.001    0.001    0.001    0.001
 copy_fm_to_dbcsr_bc                 12  8.8    0.000    0.000    0.001    0.001
 dbcsr_add_wm_from_matrix            13  8.5    0.000    0.000    0.001    0.001
 create_mat_munu                      1  5.0    0.000    0.000    0.001    0.001
 topology_control                     1  2.0    0.000    0.000    0.001    0.001
 rpa_ri_compute_en_reorder_gw         1  7.0    0.001    0.001    0.001    0.001
 dbcsr_tas_communicate_buffer         8 13.5    0.001    0.001    0.001    0.001
 clebsch_gordon_init                  1  4.0    0.001    0.001    0.001    0.001
 calculate_hirshfeld_normalizat       1  6.0    0.000    0.000    0.001    0.001
 create_intermediate_matrices         2  6.0    0.000    0.000    0.001    0.001
 dbcsr_mm_sched_finalize           1465 12.0    0.001    0.001    0.001    0.001
 mp_sum_iv                         1499  9.9    0.000    0.000    0.000    0.000
 mp_environ_l                      1126  8.8    0.000    0.000    0.000    0.000
 evaluate_core_matrix_traces         11  6.0    0.000    0.000    0.000    0.000
 calculate_ptrace_kp                 22  7.0    0.000    0.000    0.000    0.000
 dbcsr_dot_sd                        23  8.0    0.000    0.000    0.000    0.000
 pw_grid_allocate                     2  8.0    0.000    0.000    0.000    0.000
 hirshfeld_integration                1  6.0    0.000    0.000    0.000    0.000
 dbcsr_t_pgrid_create                22  9.8    0.000    0.000    0.000    0.000
 grep_Lcols                           1  6.0    0.000    0.000    0.000    0.000
 dbcsr_tas_replicate_communicat       4 12.0    0.000    0.000    0.000    0.000
 cp_fm_triangular_multiply            3  5.0    0.000    0.000    0.000    0.000
 mp_maxloc_dv                      1221  1.0    0.000    0.000    0.000    0.000
 replicate_mat_to_subgroup            1  5.0    0.000    0.000    0.000    0.000
 scf_env_density_mixing              12  5.0    0.000    0.000    0.000    0.000
 dbcsr_crop_matrix                    2  7.0    0.000    0.000    0.000    0.000
 GW_postprocessing                    1  7.0    0.000    0.000    0.000    0.000
 mp_comm_split_direct                37 12.1    0.000    0.000    0.000    0.000
 cp_sm_mix                           11  6.0    0.000    0.000    0.000    0.000
 cp_fm_scale_and_add                 31  7.0    0.000    0.000    0.000    0.000
 dbcsr_add_d                          2  5.0    0.000    0.000    0.000    0.000
 dbcsr_add_anytype                    2  6.0    0.000    0.000    0.000    0.000
 mp_sum_dv                          230  9.0    0.000    0.000    0.000    0.000
 dbcsr_mm_hostdrv_init             1465 13.0    0.000    0.000    0.000    0.000
 connectivity_control                 1  3.0    0.000    0.000    0.000    0.000
 cp_fm_maxabsval                     10  7.0    0.000    0.000    0.000    0.000
 init_qs_kind_set                     1  3.0    0.000    0.000    0.000    0.000
 build_mo_coeff_v_o_all               4  6.0    0.000    0.000    0.000    0.000
 init_qs_kind                         2  4.0    0.000    0.000    0.000    0.000
 dbcsr_copy_submatrix                 2  8.0    0.000    0.000    0.000    0.000
 dbcsr_get_global_row_map          1465  9.0    0.000    0.000    0.000    0.000
 dbcsr_get_local_rows              1466  9.0    0.000    0.000    0.000    0.000
 init_orb_basis_set                   4  5.0    0.000    0.000    0.000    0.000
 dbcsr_get_global_col_map          1465  9.0    0.000    0.000    0.000    0.000
 mp_sum_d                           560  3.1    0.000    0.000    0.000    0.000
 multiply_cannon_metrocomm1        1465 10.0    0.000    0.000    0.000    0.000
 dbcsr_reserve_all_blocks            16  9.1    0.000    0.000    0.000    0.000
 dbcsr_tas_reshape_communicate_       4 13.0    0.000    0.000    0.000    0.000
 diamat_all                           8  7.0    0.000    0.000    0.000    0.000
 dbcsr_get_local_cols              1466  9.0    0.000    0.000    0.000    0.000
 create_grid_atom                     4  5.5    0.000    0.000    0.000    0.000
 multiply_cannon_metrocomm3        1465 10.0    0.000    0.000    0.000    0.000
 dbcsr_fill_wm_from_matrix           13  9.5    0.000    0.000    0.000    0.000
 calc_ia_ia_integrals                 1  9.0    0.000    0.000    0.000    0.000
 init_cphi_and_sphi                   6  5.0    0.000    0.000    0.000    0.000
 atom_int_setup                       2  7.0    0.000    0.000    0.000    0.000
 reshape_mm_compatible                4 11.0    0.000    0.000    0.000    0.000
 continuation_pade                   25  8.0    0.000    0.000    0.000    0.000
 pw_pool_create_pw                  235  9.5    0.000    0.000    0.000    0.000
 dbcsr_scale_anytype                  7  7.4    0.000    0.000    0.000    0.000
 pw_pool_give_back_pw               269  9.6    0.000    0.000    0.000    0.000
 cp_fm_to_fm_matrix                  13  6.8    0.000    0.000    0.000    0.000
 create_matrix_L                      1  8.0    0.000    0.000    0.000    0.000
 fm_redistribute_wA                 100 11.0    0.000    0.000    0.000    0.000
 cp_dbcsr_alloc_block_from_nbl        7  5.3    0.000    0.000    0.000    0.000
 topology_generate_bond               1  4.0    0.000    0.000    0.000    0.000
 change_split                         4 11.0    0.000    0.000    0.000    0.000
 build_qs_neighbor_lists              1  4.0    0.000    0.000    0.000    0.000
 dbcsr_t_iterator_start              36  9.6    0.000    0.000    0.000    0.000
 allocate_rho_atom_rad                3 10.0    0.000    0.000    0.000    0.000
 qs_scf_loop_print                   11  5.0    0.000    0.000    0.000    0.000
 qs_diis_b_check_i_alloc             10  7.0    0.000    0.000    0.000    0.000
 print_and_update_for_ev_sc           1  8.0    0.000    0.000    0.000    0.000
 mulliken_population_analysis         1  6.0    0.000    0.000    0.000    0.000
 qs_env_rebuild_rho                   1  5.0    0.000    0.000    0.000    0.000
 dbcsr_make_dists_dense              12  8.8    0.000    0.000    0.000    0.000
 mp_bcast_i                         511  2.6    0.000    0.000    0.000    0.000
 get_vec_sigma_x                      1  8.0    0.000    0.000    0.000    0.000
 qs_rho_rebuild                       1  6.0    0.000    0.000    0.000    0.000
 mp_max_i                           420  1.7    0.000    0.000    0.000    0.000
 dbcsr_tas_mp_comm                    4  9.5    0.000    0.000    0.000    0.000
 dbcsr_filter_anytype                18  7.4    0.000    0.000    0.000    0.000
 hfx_create_basis_types               1  4.0    0.000    0.000    0.000    0.000
 read_mp2_section                     1  2.0    0.000    0.000    0.000    0.000
 topology_generate_bond_3             1  5.0    0.000    0.000    0.000    0.000
 pw_create                           73  9.8    0.000    0.000    0.000    0.000
 cp_fm_release                       31  4.1    0.000    0.000    0.000    0.000
 get_sigma_c_newton_pade             25  9.0    0.000    0.000    0.000    0.000
 build_fist_neighbor_lists            1  6.0    0.000    0.000    0.000    0.000
 qs_scf_print_scf_summary             1  5.0    0.000    0.000    0.000    0.000
 dbcsr_t_nd_mp_comm                   4 10.0    0.000    0.000    0.000    0.000
 dbcsr_t_iterator_stop               36  9.6    0.000    0.000    0.000    0.000
 topology_connectivity_pack           1  3.0    0.000    0.000    0.000    0.000
 dbcsr_make_dense                     1  6.0    0.000    0.000    0.000    0.000
 mp_sum_dm                           78  7.1    0.000    0.000    0.000    0.000
 mp_bcast_im                         72  8.8    0.000    0.000    0.000    0.000
 write_dft_control                    1  3.0    0.000    0.000    0.000    0.000
 dbcsr_make_undense                   1  6.0    0.000    0.000    0.000    0.000
 write_orbpop                         1  7.0    0.000    0.000    0.000    0.000
 dbcsr_t_align_index                  6  9.0    0.000    0.000    0.000    0.000
 qs_scf_ensure_mos                    1  3.0    0.000    0.000    0.000    0.000
 dbcsr_t_distribution_destroy        18  9.2    0.000    0.000    0.000    0.000
 build_neighbor_lists                 1  7.0    0.000    0.000    0.000    0.000
 wfs_update                           1  3.0    0.000    0.000    0.000    0.000
 pw_grid_distribute                   2  8.0    0.000    0.000    0.000    0.000
 dbcsr_copy_into_existing             1  6.0    0.000    0.000    0.000    0.000
 distribute_molecules_2d              2  5.0    0.000    0.000    0.000    0.000
 init_lebedev_grids                   1  4.0    0.000    0.000    0.000    0.000
 coordinate_control                   1  3.0    0.000    0.000    0.000    0.000
 dbcsr_t_permute_index                6 10.0    0.000    0.000    0.000    0.000
 mixing_allocate                      1  3.0    0.000    0.000    0.000    0.000
 coordinate_control_READ_COORDI       1  4.0    0.000    0.000    0.000    0.000
 topology_coordinate_pack             1  3.0    0.000    0.000    0.000    0.000
 qs_scf_ensure_work_matrices          1  3.0    0.000    0.000    0.000    0.000
 connectivity_control_check_ele       1  4.0    0.000    0.000    0.000    0.000
 distribute_molecules_1d              2  4.5    0.000    0.000    0.000    0.000
 read_atoms_input                     1  5.0    0.000    0.000    0.000    0.000
 topology_generate_bond_4             1  5.0    0.000    0.000    0.000    0.000
 dbcsr_scale_d                        1  7.0    0.000    0.000    0.000    0.000
 evaluate_pade_function              97  9.7    0.000    0.000    0.000    0.000
 write_mo_dependent_results           1  5.0    0.000    0.000    0.000    0.000
 mpools_rebuild_fm_pools              2  4.0    0.000    0.000    0.000    0.000
 scf_env_release                      3  2.7    0.000    0.000    0.000    0.000
 rs_grid_create                      13  8.6    0.000    0.000    0.000    0.000
 qs_scf_post_charges                  1  4.0    0.000    0.000    0.000    0.000
 mp_max_d                            22  7.2    0.000    0.000    0.000    0.000
 fm_redistribute_bS                 100 11.0    0.000    0.000    0.000    0.000
 set_mo_occupation_2                 11  6.0    0.000    0.000    0.000    0.000
 get_pade_parameters                 25  9.0    0.000    0.000    0.000    0.000
 write_qs_particle_coordinates        1  3.0    0.000    0.000    0.000    0.000
 fm_redistribute_post               100 11.0    0.000    0.000    0.000    0.000
 fm_redistribute_fill               100 11.0    0.000    0.000    0.000    0.000
 dbcsr_finalize_lib                   1  2.0    0.000    0.000    0.000    0.000
 initialize_buffer_bR                 1  8.0    0.000    0.000    0.000    0.000
 atom_ppint_setup                     2  7.0    0.000    0.000    0.000    0.000
 distribute_tasks                     1  7.0    0.000    0.000    0.000    0.000
 dbcsr_index_prune_deleted           24 10.8    0.000    0.000    0.000    0.000
 scf_c_read_parameters                1  3.0    0.000    0.000    0.000    0.000
 build_neighbor_lists_sab_orb         1  5.0    0.000    0.000    0.000    0.000
 calculate_ecore_overlap              1  4.0    0.000    0.000    0.000    0.000
 build_neighbor_lists_sab_core        1  5.0    0.000    0.000    0.000    0.000
 topology_constraint_pack             1  3.0    0.000    0.000    0.000    0.000
 contract2                           30  8.0    0.000    0.000    0.000    0.000
 scf_env_cleanup                      1  3.0    0.000    0.000    0.000    0.000
 build_neighbor_lists_sap_oce         1  5.0    0.000    0.000    0.000    0.000
 mp_sum_i                             9  8.4    0.000    0.000    0.000    0.000
 cp_fm_to_fm_columns                  1  5.0    0.000    0.000    0.000    0.000
 mp_sum_b                            24  8.8    0.000    0.000    0.000    0.000
 build_neighbor_lists_sac_ae          1  5.0    0.000    0.000    0.000    0.000
 init_scf_loop                        1  4.0    0.000    0.000    0.000    0.000
 dump_info_core_hamiltonian           1  5.0    0.000    0.000    0.000    0.000
 mp_comm_compare                      4 12.0    0.000    0.000    0.000    0.000
 qs_energies_properties               1  3.0    0.000    0.000    0.000    0.000
 create_group_dist_d1_i3              5  7.2    0.000    0.000    0.000    0.000
 dbcsr_verify_matrix                 11  8.0    0.000    0.000    0.000    0.000
 topology_generate_molecule           1  4.0    0.000    0.000    0.000    0.000
 set_mo_occupation_1                 12  6.8    0.000    0.000    0.000    0.000
 mp_sync                              4  7.5    0.000    0.000    0.000    0.000
 restraint_control                    1  2.0    0.000    0.000    0.000    0.000
 array2fm_fill                        2  8.0    0.000    0.000    0.000    0.000
 build_neighbor_lists_sab_all         1  5.0    0.000    0.000    0.000    0.000
 mp_max_l                            22  1.8    0.000    0.000    0.000    0.000
 topology_generate_bond_2             1  5.0    0.000    0.000    0.000    0.000
 qs_efield_local_operator            12  7.8    0.000    0.000    0.000    0.000
 resp_fit                             1  5.0    0.000    0.000    0.000    0.000
 -------------------------------------------------------------------------------

    Writing callgraph to: ALL_ELEC.callgraph

 -------------------------------------------------------------------------------
 The number of warnings for this run is : 0
 
 -------------------------------------------------------------------------------
  **** **** ******  **  PROGRAM ENDED AT                 2020-03-04 21:49:34.186
 ***** ** ***  *** **   PROGRAM RAN ON                                   cn-0252
 **    ****   ******    PROGRAM RAN BY                                    arjunr
 ***** **    ** ** **   PROGRAM PROCESS ID                                126257
  **** **  *******  **  PROGRAM STOPPED IN /scratch/pc2-mitarbeiter/arjunr/cp2k_
                                           application/h2o_gw100
